#Lammps data written in MATLAB by SOE

3000 atoms
3 atom types

0 38.440 xlo xhi
0 38.440 ylo yhi
0 38.440 zlo zhi

Masses

1 32.065
2 28.085
3 6.941

Atoms # charge

1 1 -1.2000 25.56247 16.93139 14.67654 0 0 0
2 1 -1.2000 13.09652 14.14516 5.39996 0 0 0
3 1 -1.2000 37.12179 2.71418 16.44887 0 0 0
4 1 -1.2000 11.83553 17.83789 32.83302 0 0 0
5 1 -1.2000 12.72630 8.68378 18.54161 0 0 0
6 1 -1.2000 18.25282 13.76032 22.41522 0 0 0
7 1 -1.2000 10.81948 33.06493 3.14169 0 0 0
8 1 -1.2000 17.56246 35.80602 3.84495 0 0 0
9 1 -1.2000 19.85187 27.33259 1.92489 0 0 0
10 1 -1.2000 15.62525 32.43707 11.78642 0 0 0
11 1 -1.2000 17.34804 34.82482 17.88230 0 0 0
12 1 -1.2000 0.19777 8.28152 34.52202 0 0 0
13 1 -1.2000 5.80808 30.39796 29.17203 0 0 0
14 1 -1.2000 3.88432 17.12828 34.37147 0 0 0
15 1 -1.2000 8.72550 15.81105 0.81298 0 0 0
16 1 -1.2000 31.26178 5.51955 34.67682 0 0 0
17 1 -1.2000 6.76870 3.69951 23.10111 0 0 0
18 1 -1.2000 35.54316 0.27273 1.50850 0 0 0
19 1 -1.2000 22.84709 36.06965 9.26694 0 0 0
20 1 -1.2000 3.33097 18.83847 30.00347 0 0 0
21 1 -1.2000 23.86779 4.17763 17.54979 0 0 0
22 1 -1.2000 12.15373 10.07731 30.26973 0 0 0
23 1 -1.2000 29.43428 14.34548 32.35017 0 0 0
24 1 -1.2000 17.27921 16.14827 16.79045 0 0 0
25 1 -1.2000 23.70274 24.84714 3.05592 0 0 0
26 1 -1.2000 15.95409 23.73005 38.20211 0 0 0
27 1 -1.2000 21.03911 34.35837 19.89719 0 0 0
28 1 -1.2000 31.39873 0.07775 8.48501 0 0 0
29 1 -1.2000 11.32914 8.40468 21.88519 0 0 0
30 1 -1.2000 4.21787 1.13114 21.23794 0 0 0
31 1 -1.2000 27.39329 38.05763 38.27957 0 0 0
32 1 -1.2000 31.47752 0.96144 17.93133 0 0 0
33 1 -1.2000 25.75220 11.46593 31.88651 0 0 0
34 1 -1.2000 33.88307 28.22516 31.27043 0 0 0
35 1 -1.2000 15.34912 6.71974 9.11344 0 0 0
36 1 -1.2000 38.09917 19.23953 37.24651 0 0 0
37 1 -1.2000 3.13605 27.76811 19.41734 0 0 0
38 1 -1.2000 9.54557 20.73482 3.61734 0 0 0
39 1 -1.2000 36.14917 32.61674 32.16532 0 0 0
40 1 -1.2000 10.42381 14.44127 10.90549 0 0 0
41 1 -1.2000 30.55005 31.11035 6.05446 0 0 0
42 1 -1.2000 13.99077 34.02926 37.30788 0 0 0
43 1 -1.2000 33.04487 2.79016 35.09361 0 0 0
44 1 -1.2000 20.95948 35.00369 33.72650 0 0 0
45 1 -1.2000 29.32840 13.60691 4.11474 0 0 0
46 1 -1.2000 10.16245 36.72647 31.18809 0 0 0
47 1 -1.2000 19.65893 24.34833 30.20777 0 0 0
48 1 -1.2000 15.18093 21.58353 10.98204 0 0 0
49 1 -1.2000 24.21397 4.79320 20.48993 0 0 0
50 1 -1.2000 15.42615 21.44076 0.38987 0 0 0
51 1 -1.2000 36.25287 24.03663 7.56373 0 0 0
52 1 -1.2000 35.98930 21.77830 15.42425 0 0 0
53 1 -1.2000 21.28852 23.70939 32.01499 0 0 0
54 1 -1.2000 7.38736 6.24118 34.92536 0 0 0
55 1 -1.2000 24.33035 12.07142 8.63782 0 0 0
56 1 -1.2000 14.29362 17.24953 22.27280 0 0 0
57 1 -1.2000 0.14568 9.88183 35.03684 0 0 0
58 1 -1.2000 15.78879 28.69424 25.26076 0 0 0
59 1 -1.2000 35.81586 3.67107 28.17359 0 0 0
60 1 -1.2000 3.26470 12.61950 1.26667 0 0 0
61 1 -1.2000 21.42875 24.32327 6.79697 0 0 0
62 1 -1.2000 11.51582 18.34246 19.48329 0 0 0
63 1 -1.2000 3.53288 17.74954 0.86891 0 0 0
64 1 -1.2000 31.46885 27.71943 28.44791 0 0 0
65 1 -1.2000 23.38869 9.76717 19.61381 0 0 0
66 1 -1.2000 20.89614 31.53347 5.89831 0 0 0
67 1 -1.2000 5.11131 38.11354 31.45807 0 0 0
68 1 -1.2000 12.57045 14.14173 30.01020 0 0 0
69 1 -1.2000 21.15321 7.06769 4.56537 0 0 0
70 1 -1.2000 9.39341 6.34934 4.33551 0 0 0
71 1 -1.2000 25.00791 11.71430 15.29453 0 0 0
72 1 -1.2000 19.04005 25.74100 35.72055 0 0 0
73 1 -1.2000 27.91350 17.98520 31.82543 0 0 0
74 1 -1.2000 37.73275 21.20717 17.69018 0 0 0
75 1 -1.2000 10.80635 11.60229 11.20368 0 0 0
76 1 -1.2000 13.21801 1.29342 37.44421 0 0 0
77 1 -1.2000 35.21519 28.86099 38.15028 0 0 0
78 1 -1.2000 21.97859 35.20130 26.87244 0 0 0
79 1 -1.2000 10.11894 29.92431 13.06018 0 0 0
80 1 -1.2000 33.64906 21.54559 0.70493 0 0 0
81 1 -1.2000 18.51975 11.34243 23.99837 0 0 0
82 1 -1.2000 3.76239 5.95359 15.57336 0 0 0
83 1 -1.2000 35.54543 14.26923 17.22639 0 0 0
84 1 -1.2000 15.97711 20.42788 35.12199 0 0 0
85 1 -1.2000 11.32030 22.47538 4.32160 0 0 0
86 1 -1.2000 9.31355 0.13055 14.68010 0 0 0
87 1 -1.2000 31.77591 22.65822 12.96561 0 0 0
88 1 -1.2000 20.96988 10.17239 29.94760 0 0 0
89 1 -1.2000 34.15869 22.11472 18.99070 0 0 0
90 1 -1.2000 26.47439 1.59713 24.57460 0 0 0
91 1 -1.2000 17.61607 37.34307 28.64395 0 0 0
92 1 -1.2000 9.61665 13.49960 23.30392 0 0 0
93 1 -1.2000 0.97707 35.74705 27.09734 0 0 0
94 1 -1.2000 22.21258 14.15398 36.53119 0 0 0
95 1 -1.2000 12.83129 2.62301 18.66302 0 0 0
96 1 -1.2000 0.44638 0.24313 8.83910 0 0 0
97 1 -1.2000 18.14416 12.17732 37.24896 0 0 0
98 1 -1.2000 3.38230 28.64622 0.30794 0 0 0
99 1 -1.2000 13.45884 36.92909 12.26833 0 0 0
100 1 -1.2000 32.02026 29.69441 22.44922 0 0 0
101 1 -1.2000 11.13351 20.56915 3.12636 0 0 0
102 1 -1.2000 12.74456 27.87851 37.19237 0 0 0
103 1 -1.2000 6.29554 29.43363 22.32685 0 0 0
104 1 -1.2000 36.61168 35.10483 12.64028 0 0 0
105 1 -1.2000 22.12891 33.66164 33.45949 0 0 0
106 1 -1.2000 27.36569 12.27312 36.24631 0 0 0
107 1 -1.2000 9.67162 6.37803 32.88701 0 0 0
108 1 -1.2000 18.25137 27.53856 2.43715 0 0 0
109 1 -1.2000 8.58132 37.14546 36.07572 0 0 0
110 1 -1.2000 38.22217 7.02374 21.87619 0 0 0
111 1 -1.2000 11.44746 34.88476 30.74254 0 0 0
112 1 -1.2000 15.32666 24.88367 34.07527 0 0 0
113 1 -1.2000 11.06620 10.76357 32.40847 0 0 0
114 1 -1.2000 18.04537 1.29518 31.18856 0 0 0
115 1 -1.2000 5.39722 1.17402 11.46363 0 0 0
116 1 -1.2000 4.01781 22.07062 13.21948 0 0 0
117 1 -1.2000 30.11550 13.50723 10.21022 0 0 0
118 1 -1.2000 14.39166 38.23042 33.89023 0 0 0
119 1 -1.2000 31.98287 13.20169 15.52797 0 0 0
120 1 -1.2000 4.04504 10.83404 3.57004 0 0 0
121 1 -1.2000 16.81560 28.68359 10.94678 0 0 0
122 1 -1.2000 15.57077 17.88776 35.50312 0 0 0
123 1 -1.2000 28.29556 33.24348 15.26312 0 0 0
124 1 -1.2000 21.54684 10.91521 8.68807 0 0 0
125 1 -1.2000 7.43221 10.20007 13.13651 0 0 0
126 1 -1.2000 8.45095 32.75081 17.27529 0 0 0
127 1 -1.2000 22.40708 11.41840 22.99708 0 0 0
128 1 -1.2000 27.56214 16.09693 34.10828 0 0 0
129 1 -1.2000 15.36625 2.03768 31.85265 0 0 0
130 1 -1.2000 5.38942 21.05029 5.83468 0 0 0
131 1 -1.2000 2.28978 24.18054 0.50423 0 0 0
132 1 -1.2000 11.07147 26.36614 30.84355 0 0 0
133 1 -1.2000 35.02863 37.29184 0.33717 0 0 0
134 1 -1.2000 18.31858 30.31674 35.04730 0 0 0
135 1 -1.2000 28.41525 4.33500 24.22224 0 0 0
136 1 -1.2000 22.08047 14.95251 8.52569 0 0 0
137 1 -1.2000 29.03144 13.36083 29.01493 0 0 0
138 1 -1.2000 24.32875 12.41047 24.25430 0 0 0
139 1 -1.2000 32.21186 0.16064 16.66927 0 0 0
140 1 -1.2000 5.30445 28.23148 24.25358 0 0 0
141 1 -1.2000 5.82282 32.07646 14.76636 0 0 0
142 1 -1.2000 23.91748 23.52462 4.81068 0 0 0
143 1 -1.2000 19.83556 4.71191 8.35547 0 0 0
144 1 -1.2000 32.88833 30.54472 16.65109 0 0 0
145 1 -1.2000 1.24936 2.85350 26.17694 0 0 0
146 1 -1.2000 12.59385 36.73893 26.36332 0 0 0
147 1 -1.2000 23.60710 29.09941 16.29482 0 0 0
148 1 -1.2000 6.11096 35.59036 5.38230 0 0 0
149 1 -1.2000 16.40165 3.80053 23.05734 0 0 0
150 1 -1.2000 36.04570 9.79436 26.49555 0 0 0
151 1 -1.2000 18.59285 14.46118 37.81369 0 0 0
152 1 -1.2000 16.59980 3.44332 20.54663 0 0 0
153 1 -1.2000 23.28217 16.67498 25.27221 0 0 0
154 1 -1.2000 14.24344 2.75172 37.08852 0 0 0
155 1 -1.2000 10.38761 26.98581 1.49151 0 0 0
156 1 -1.2000 6.94015 0.69514 4.06220 0 0 0
157 1 -1.2000 15.52302 26.42891 9.75244 0 0 0
158 1 -1.2000 18.92811 26.26275 16.88491 0 0 0
159 1 -1.2000 35.03278 5.61890 31.99079 0 0 0
160 1 -1.2000 28.66245 16.38439 31.28094 0 0 0
161 1 -1.2000 31.65842 23.12420 36.33716 0 0 0
162 1 -1.2000 35.96482 6.07031 34.03747 0 0 0
163 1 -1.2000 18.62243 5.82825 16.27006 0 0 0
164 1 -1.2000 16.59417 2.87271 0.24126 0 0 0
165 1 -1.2000 33.22617 10.52143 13.64489 0 0 0
166 1 -1.2000 33.21648 22.41422 6.98171 0 0 0
167 1 -1.2000 20.42345 27.29930 3.35681 0 0 0
168 1 -1.2000 2.63471 37.07460 36.00316 0 0 0
169 1 -1.2000 11.99847 16.14054 8.22995 0 0 0
170 1 -1.2000 32.55093 15.11096 6.28898 0 0 0
171 1 -1.2000 28.82404 3.53627 9.44303 0 0 0
172 1 -1.2000 30.80599 31.85690 4.76254 0 0 0
173 1 -1.2000 12.55506 2.01729 13.63023 0 0 0
174 1 -1.2000 27.35630 38.27160 7.48501 0 0 0
175 1 -1.2000 32.52508 21.55346 19.29791 0 0 0
176 1 -1.2000 10.87398 21.51763 30.03274 0 0 0
177 1 -1.2000 18.17909 21.05985 5.70110 0 0 0
178 1 -1.2000 25.10239 15.30784 30.98924 0 0 0
179 1 -1.2000 24.50560 17.57792 2.63371 0 0 0
180 1 -1.2000 3.52279 12.72517 11.12647 0 0 0
181 1 -1.2000 4.19329 16.29393 36.14904 0 0 0
182 1 -1.2000 1.24134 21.91217 29.42980 0 0 0
183 1 -1.2000 37.15961 7.62190 11.53742 0 0 0
184 1 -1.2000 16.43994 30.70407 12.81797 0 0 0
185 1 -1.2000 11.32544 27.19400 10.12169 0 0 0
186 1 -1.2000 28.30098 10.02888 19.00357 0 0 0
187 1 -1.2000 19.74736 37.69306 1.04158 0 0 0
188 1 -1.2000 32.69648 2.70769 24.06472 0 0 0
189 1 -1.2000 8.16306 10.84150 7.79028 0 0 0
190 1 -1.2000 11.80637 36.71443 22.93054 0 0 0
191 1 -1.2000 14.69958 6.03511 18.40981 0 0 0
192 1 -1.2000 21.29830 35.20099 9.51993 0 0 0
193 1 -1.2000 6.12963 25.33933 12.06938 0 0 0
194 1 -1.2000 36.72990 12.78619 33.92647 0 0 0
195 1 -1.2000 8.93252 22.59051 23.28387 0 0 0
196 1 -1.2000 9.35329 33.22776 14.35467 0 0 0
197 1 -1.2000 18.43138 2.48377 35.50643 0 0 0
198 1 -1.2000 22.87479 24.33355 34.47241 0 0 0
199 1 -1.2000 12.89485 32.42961 13.58584 0 0 0
200 1 -1.2000 20.22269 31.29417 8.55652 0 0 0
201 1 -1.2000 37.75398 19.88687 19.81463 0 0 0
202 1 -1.2000 26.94779 11.31491 3.96464 0 0 0
203 1 -1.2000 20.86622 37.78933 17.77266 0 0 0
204 1 -1.2000 30.65228 10.84799 5.36836 0 0 0
205 1 -1.2000 21.01480 20.56006 1.22392 0 0 0
206 1 -1.2000 4.09151 3.53442 2.22906 0 0 0
207 1 -1.2000 20.23800 20.60070 27.55132 0 0 0
208 1 -1.2000 13.14659 9.70306 7.85389 0 0 0
209 1 -1.2000 35.68618 11.48165 25.44282 0 0 0
210 1 -1.2000 17.94995 11.33521 4.93374 0 0 0
211 1 -1.2000 28.18965 35.85980 35.15380 0 0 0
212 1 -1.2000 1.37599 19.29638 6.19753 0 0 0
213 1 -1.2000 9.48251 19.36717 34.98390 0 0 0
214 1 -1.2000 9.41127 4.32512 5.49502 0 0 0
215 1 -1.2000 14.13614 32.97247 4.77467 0 0 0
216 1 -1.2000 16.19534 7.36273 23.45010 0 0 0
217 1 -1.2000 2.83612 17.24975 29.48490 0 0 0
218 1 -1.2000 12.65694 18.83172 9.27251 0 0 0
219 1 -1.2000 22.96338 38.42006 38.33831 0 0 0
220 1 -1.2000 25.67496 10.04939 36.75241 0 0 0
221 1 -1.2000 27.53299 19.90544 17.49638 0 0 0
222 1 -1.2000 38.04145 4.73464 23.67622 0 0 0
223 1 -1.2000 31.63886 18.94339 16.97403 0 0 0
224 1 -1.2000 13.22526 21.70052 18.48246 0 0 0
225 1 -1.2000 2.43237 2.46786 31.09621 0 0 0
226 1 -1.2000 25.31990 21.41950 13.59737 0 0 0
227 1 -1.2000 18.68409 6.36801 2.11372 0 0 0
228 1 -1.2000 21.74360 28.30037 15.03197 0 0 0
229 1 -1.2000 20.49248 36.18832 25.97245 0 0 0
230 1 -1.2000 25.26159 38.36408 22.70824 0 0 0
231 1 -1.2000 19.05031 36.48180 1.81095 0 0 0
232 1 -1.2000 36.80778 14.10125 36.04743 0 0 0
233 1 -1.2000 28.01388 6.42592 8.73530 0 0 0
234 1 -1.2000 21.16343 30.52978 4.71824 0 0 0
235 1 -1.2000 18.10398 4.07251 2.90001 0 0 0
236 1 -1.2000 31.93602 10.73376 1.15544 0 0 0
237 1 -1.2000 11.91070 36.46377 14.98753 0 0 0
238 1 -1.2000 13.57274 0.99566 23.13780 0 0 0
239 1 -1.2000 5.48029 8.82679 19.21841 0 0 0
240 1 -1.2000 9.75077 6.91979 20.33163 0 0 0
241 1 -1.2000 31.00457 27.57713 21.46844 0 0 0
242 1 -1.2000 37.16637 24.27167 32.63225 0 0 0
243 1 -1.2000 16.09782 1.56192 34.23605 0 0 0
244 1 -1.2000 32.18571 32.18137 0.84282 0 0 0
245 1 -1.2000 9.95760 13.76409 5.51784 0 0 0
246 1 -1.2000 9.31332 11.94581 8.85394 0 0 0
247 1 -1.2000 16.72492 36.46461 15.50217 0 0 0
248 1 -1.2000 16.09690 10.19553 27.71853 0 0 0
249 1 -1.2000 26.85710 34.02067 33.93278 0 0 0
250 1 -1.2000 7.81111 3.46568 5.28670 0 0 0
251 1 -1.2000 16.89076 37.16539 8.47295 0 0 0
252 1 -1.2000 30.83917 32.09229 10.57251 0 0 0
253 1 -1.2000 4.43506 8.71608 26.55226 0 0 0
254 1 -1.2000 16.26811 16.17458 30.06466 0 0 0
255 1 -1.2000 2.23464 13.06630 25.86116 0 0 0
256 1 -1.2000 15.60614 32.11800 33.88633 0 0 0
257 1 -1.2000 26.67387 1.03413 22.51388 0 0 0
258 1 -1.2000 35.11829 6.99843 9.17914 0 0 0
259 1 -1.2000 31.53458 14.85176 37.12504 0 0 0
260 1 -1.2000 20.13290 23.60274 24.57419 0 0 0
261 1 -1.2000 33.57704 8.11916 19.60651 0 0 0
262 1 -1.2000 16.65361 22.86748 5.82676 0 0 0
263 1 -1.2000 21.32125 28.00346 25.05844 0 0 0
264 1 -1.2000 29.46627 25.16464 12.56736 0 0 0
265 1 -1.2000 15.38374 35.68792 0.05202 0 0 0
266 1 -1.2000 23.83252 29.89973 26.34823 0 0 0
267 1 -1.2000 1.80838 25.09393 28.79905 0 0 0
268 1 -1.2000 7.75907 30.33849 30.91678 0 0 0
269 1 -1.2000 11.72536 34.95690 25.81442 0 0 0
270 1 -1.2000 32.47201 30.64928 0.51058 0 0 0
271 1 -1.2000 23.77547 16.93580 6.25896 0 0 0
272 1 -1.2000 20.95138 7.89612 35.58584 0 0 0
273 1 -1.2000 22.96364 38.24751 15.96829 0 0 0
274 1 -1.2000 1.63556 35.17008 18.54315 0 0 0
275 1 -1.2000 35.13134 24.69216 24.24772 0 0 0
276 1 -1.2000 3.65835 11.09457 36.52120 0 0 0
277 1 -1.2000 12.46219 16.31115 4.17151 0 0 0
278 1 -1.2000 36.56354 14.49996 24.68292 0 0 0
279 1 -1.2000 27.89045 22.59888 19.38795 0 0 0
280 1 -1.2000 8.08382 16.16568 18.67554 0 0 0
281 1 -1.2000 0.48000 33.54959 23.22727 0 0 0
282 1 -1.2000 23.93808 34.67832 1.23463 0 0 0
283 1 -1.2000 5.28474 23.29156 24.14491 0 0 0
284 1 -1.2000 38.23394 22.38302 35.71213 0 0 0
285 1 -1.2000 12.75490 20.05451 34.46370 0 0 0
286 1 -1.2000 14.23380 0.34797 14.22526 0 0 0
287 1 -1.2000 20.21086 25.77298 37.15218 0 0 0
288 1 -1.2000 18.16412 17.20401 21.35656 0 0 0
289 1 -1.2000 15.19449 2.10580 35.94063 0 0 0
290 1 -1.2000 24.71915 10.57765 19.20677 0 0 0
291 1 -1.2000 12.91857 7.29809 18.73542 0 0 0
292 1 -1.2000 9.19689 11.83098 5.72474 0 0 0
293 1 -1.2000 38.04112 37.90522 30.44281 0 0 0
294 1 -1.2000 18.08076 5.12800 19.52934 0 0 0
295 1 -1.2000 23.21497 4.28931 32.71135 0 0 0
296 1 -1.2000 23.18399 8.37886 18.28622 0 0 0
297 1 -1.2000 19.86728 20.58798 35.01837 0 0 0
298 1 -1.2000 7.22506 12.32134 6.86023 0 0 0
299 1 -1.2000 37.97320 5.10277 36.19121 0 0 0
300 1 -1.2000 30.42425 35.14194 14.99016 0 0 0
301 1 -1.2000 28.55231 25.08527 1.32381 0 0 0
302 1 -1.2000 15.93290 32.94666 9.92867 0 0 0
303 1 -1.2000 3.74279 3.66075 9.87143 0 0 0
304 1 -1.2000 27.93336 36.86392 22.59872 0 0 0
305 1 -1.2000 14.96438 30.35802 18.76030 0 0 0
306 1 -1.2000 21.15670 25.00991 13.02350 0 0 0
307 1 -1.2000 23.56385 20.79666 12.55149 0 0 0
308 1 -1.2000 15.31230 21.73817 33.18327 0 0 0
309 1 -1.2000 38.09955 19.07074 3.35522 0 0 0
310 1 -1.2000 0.32966 12.92739 15.76720 0 0 0
311 1 -1.2000 16.02396 19.27986 27.54723 0 0 0
312 1 -1.2000 38.00508 18.07798 10.98893 0 0 0
313 1 -1.2000 9.30178 31.50940 4.01801 0 0 0
314 1 -1.2000 14.25460 17.12173 19.20290 0 0 0
315 1 -1.2000 18.66842 11.84183 18.69897 0 0 0
316 1 -1.2000 12.49985 13.73748 0.76832 0 0 0
317 1 -1.2000 34.18235 26.35733 16.28983 0 0 0
318 1 -1.2000 36.08249 1.68909 5.00366 0 0 0
319 1 -1.2000 26.16299 2.11795 5.18536 0 0 0
320 1 -1.2000 9.34953 12.34131 11.66425 0 0 0
321 1 -1.2000 4.22830 4.74899 29.77404 0 0 0
322 1 -1.2000 25.28608 16.16542 23.97377 0 0 0
323 1 -1.2000 1.27439 20.64431 17.03351 0 0 0
324 1 -1.2000 4.29276 20.84826 25.47721 0 0 0
325 1 -1.2000 34.14973 15.65217 36.83490 0 0 0
326 1 -1.2000 25.30014 25.62074 37.49118 0 0 0
327 1 -1.2000 28.51499 11.86397 29.89111 0 0 0
328 1 -1.2000 12.57924 13.58921 12.74651 0 0 0
329 1 -1.2000 20.78247 26.82654 33.89018 0 0 0
330 1 -1.2000 19.43940 6.69998 13.54518 0 0 0
331 1 -1.2000 5.48735 3.47405 28.49815 0 0 0
332 1 -1.2000 35.52573 8.83515 10.79963 0 0 0
333 1 -1.2000 33.72115 8.32677 2.72933 0 0 0
334 1 -1.2000 8.40043 25.58423 1.72237 0 0 0
335 1 -1.2000 1.58970 23.06130 5.65270 0 0 0
336 1 -1.2000 1.49071 32.36087 13.51788 0 0 0
337 1 -1.2000 25.40766 25.69637 18.83721 0 0 0
338 1 -1.2000 20.35290 19.34139 21.28064 0 0 0
339 1 -1.2000 10.46279 27.17307 16.24271 0 0 0
340 1 -1.2000 10.60770 21.96779 12.65229 0 0 0
341 1 -1.2000 11.78999 0.27828 8.60742 0 0 0
342 1 -1.2000 14.41252 11.10981 23.09948 0 0 0
343 1 -1.2000 7.44333 0.16795 27.65000 0 0 0
344 1 -1.2000 6.70502 13.20626 29.53574 0 0 0
345 1 -1.2000 29.40829 9.59671 0.80566 0 0 0
346 1 -1.2000 1.31611 29.12874 29.07805 0 0 0
347 1 -1.2000 28.65993 14.74550 20.17039 0 0 0
348 1 -1.2000 13.94909 33.69431 9.13886 0 0 0
349 1 -1.2000 33.49004 13.86815 31.62213 0 0 0
350 1 -1.2000 32.77473 5.08635 10.86063 0 0 0
351 1 -1.2000 7.40050 11.05987 0.38945 0 0 0
352 1 -1.2000 11.97617 10.12114 34.59254 0 0 0
353 1 -1.2000 1.51241 24.71716 24.01780 0 0 0
354 1 -1.2000 8.65668 28.18058 30.45858 0 0 0
355 1 -1.2000 19.01568 13.80087 35.52968 0 0 0
356 1 -1.2000 6.93684 38.40856 11.51603 0 0 0
357 1 -1.2000 21.67606 8.93992 16.52628 0 0 0
358 1 -1.2000 20.51998 11.08021 13.64294 0 0 0
359 1 -1.2000 31.89989 25.39531 32.42684 0 0 0
360 1 -1.2000 21.84074 13.45122 16.95223 0 0 0
361 1 -1.2000 1.60583 35.20898 7.19812 0 0 0
362 1 -1.2000 14.45756 28.08038 3.48459 0 0 0
363 1 -1.2000 14.39693 3.48211 11.28607 0 0 0
364 1 -1.2000 6.25060 28.04154 32.24003 0 0 0
365 1 -1.2000 31.12996 9.39553 9.37382 0 0 0
366 1 -1.2000 14.99938 27.34622 26.33280 0 0 0
367 1 -1.2000 5.34089 10.04390 34.62067 0 0 0
368 1 -1.2000 4.56629 36.55784 33.54031 0 0 0
369 1 -1.2000 4.70379 38.30060 15.88503 0 0 0
370 1 -1.2000 33.82452 11.75570 5.56646 0 0 0
371 1 -1.2000 12.67564 19.55215 14.78515 0 0 0
372 1 -1.2000 28.90640 1.12378 1.64912 0 0 0
373 1 -1.2000 14.97720 35.14302 13.28893 0 0 0
374 1 -1.2000 23.34239 16.21249 16.13694 0 0 0
375 1 -1.2000 18.50622 28.93874 17.54924 0 0 0
376 1 -1.2000 9.15166 2.03817 2.06386 0 0 0
377 1 -1.2000 27.04677 5.67191 13.45951 0 0 0
378 1 -1.2000 32.04672 18.57351 24.99678 0 0 0
379 1 -1.2000 31.89491 36.03089 23.06925 0 0 0
380 1 -1.2000 24.84899 33.33378 9.79499 0 0 0
381 1 -1.2000 28.91882 18.58352 5.27176 0 0 0
382 1 -1.2000 30.73704 37.79407 15.90824 0 0 0
383 1 -1.2000 15.07783 10.24035 17.15085 0 0 0
384 1 -1.2000 1.32988 24.43772 13.18887 0 0 0
385 1 -1.2000 4.95797 31.36562 19.10532 0 0 0
386 1 -1.2000 29.13626 19.59027 33.88748 0 0 0
387 1 -1.2000 0.47642 10.42533 19.76614 0 0 0
388 1 -1.2000 27.15362 22.48229 33.49487 0 0 0
389 1 -1.2000 0.64989 30.00506 2.97767 0 0 0
390 1 -1.2000 6.72808 5.56112 37.94852 0 0 0
391 1 -1.2000 18.50503 2.45077 6.33606 0 0 0
392 1 -1.2000 38.17178 9.95446 13.97440 0 0 0
393 1 -1.2000 34.81868 27.92983 27.92169 0 0 0
394 1 -1.2000 4.69541 7.58111 34.16152 0 0 0
395 1 -1.2000 21.15988 16.19117 0.88373 0 0 0
396 1 -1.2000 17.37976 22.88893 9.73534 0 0 0
397 1 -1.2000 32.65173 35.88776 3.72641 0 0 0
398 1 -1.2000 0.68916 5.64150 25.45427 0 0 0
399 1 -1.2000 28.09931 29.04365 5.43094 0 0 0
400 1 -1.2000 5.73779 12.91039 11.41552 0 0 0
401 1 -1.2000 24.48733 24.33942 27.63794 0 0 0
402 1 -1.2000 17.19511 25.61060 16.96215 0 0 0
403 1 -1.2000 26.58700 18.81022 26.89615 0 0 0
404 1 -1.2000 27.97061 27.19712 4.42907 0 0 0
405 1 -1.2000 21.40354 32.78905 3.36063 0 0 0
406 1 -1.2000 8.70838 8.24298 23.05124 0 0 0
407 1 -1.2000 36.71700 27.60379 21.56527 0 0 0
408 1 -1.2000 0.29700 29.54772 8.84276 0 0 0
409 1 -1.2000 10.43019 18.85339 27.55063 0 0 0
410 1 -1.2000 2.51715 27.14092 4.78791 0 0 0
411 1 -1.2000 0.37023 0.78913 37.13194 0 0 0
412 1 -1.2000 16.11413 27.42257 32.61129 0 0 0
413 1 -1.2000 2.12164 6.33407 21.85025 0 0 0
414 1 -1.2000 6.64286 13.95502 32.16097 0 0 0
415 1 -1.2000 3.78547 14.21372 28.91272 0 0 0
416 1 -1.2000 36.87654 29.22110 36.70455 0 0 0
417 1 -1.2000 19.73915 38.19435 18.95759 0 0 0
418 1 -1.2000 12.80551 8.65600 28.06059 0 0 0
419 1 -1.2000 4.27676 18.66046 11.76502 0 0 0
420 1 -1.2000 7.91243 2.68285 33.24268 0 0 0
421 1 -1.2000 17.69180 17.75248 31.24796 0 0 0
422 1 -1.2000 9.81756 3.73534 13.75389 0 0 0
423 1 -1.2000 2.48610 10.70524 2.36169 0 0 0
424 1 -1.2000 8.46862 27.99039 4.19097 0 0 0
425 1 -1.2000 28.42725 23.59418 24.25263 0 0 0
426 1 -1.2000 17.67761 8.10631 3.18231 0 0 0
427 1 -1.2000 37.67995 25.03270 35.37605 0 0 0
428 1 -1.2000 24.10017 37.52460 0.06906 0 0 0
429 1 -1.2000 24.72608 13.01696 26.33580 0 0 0
430 1 -1.2000 2.30356 36.76057 26.27104 0 0 0
431 1 -1.2000 15.82197 22.15462 31.56805 0 0 0
432 1 -1.2000 28.70155 22.35798 23.15756 0 0 0
433 1 -1.2000 18.40538 5.59098 22.21242 0 0 0
434 1 -1.2000 35.84731 7.41048 26.24259 0 0 0
435 1 -1.2000 11.99801 14.52234 18.24328 0 0 0
436 1 -1.2000 25.48759 31.97431 6.57829 0 0 0
437 1 -1.2000 25.92190 31.79198 19.83187 0 0 0
438 1 -1.2000 21.88974 16.07284 27.17252 0 0 0
439 1 -1.2000 2.20334 27.98450 6.40976 0 0 0
440 1 -1.2000 15.13775 17.39776 31.34345 0 0 0
441 1 -1.2000 25.73786 17.39873 16.58944 0 0 0
442 1 -1.2000 4.64735 27.06881 15.44821 0 0 0
443 1 -1.2000 1.45523 20.94399 12.73025 0 0 0
444 1 -1.2000 33.72470 0.81100 12.82225 0 0 0
445 1 -1.2000 11.50332 32.91882 34.68442 0 0 0
446 1 -1.2000 15.23352 13.56587 0.03387 0 0 0
447 1 -1.2000 24.58046 9.68653 0.48143 0 0 0
448 1 -1.2000 7.57334 31.57176 12.22299 0 0 0
449 1 -1.2000 24.51661 28.98748 10.96378 0 0 0
450 1 -1.2000 29.31963 11.99832 34.61596 0 0 0
451 1 -1.2000 23.59859 26.56548 23.28355 0 0 0
452 1 -1.2000 33.26191 34.82335 11.58289 0 0 0
453 1 -1.2000 21.80629 6.42161 21.31952 0 0 0
454 1 -1.2000 28.71288 8.61723 1.88490 0 0 0
455 1 -1.2000 14.72609 26.45635 35.24790 0 0 0
456 1 -1.2000 28.41782 25.44489 22.45294 0 0 0
457 1 -1.2000 17.99621 37.00685 6.01524 0 0 0
458 1 -1.2000 19.38156 36.47543 31.92245 0 0 0
459 1 -1.2000 10.52117 15.46487 13.88454 0 0 0
460 1 -1.2000 9.70640 33.51361 34.66603 0 0 0
461 1 -1.2000 8.05436 23.68362 27.44933 0 0 0
462 1 -1.2000 17.34087 21.76182 4.76064 0 0 0
463 1 -1.2000 2.88688 34.33248 4.92809 0 0 0
464 1 -1.2000 24.94212 35.70623 25.55917 0 0 0
465 1 -1.2000 11.03694 22.02925 28.06606 0 0 0
466 1 -1.2000 21.02287 0.58221 24.31081 0 0 0
467 1 -1.2000 20.26313 14.00307 16.34126 0 0 0
468 1 -1.2000 33.26339 13.29548 30.32002 0 0 0
469 1 -1.2000 32.00958 20.50411 30.64264 0 0 0
470 1 -1.2000 30.75565 15.11637 20.40029 0 0 0
471 1 -1.2000 10.12048 32.49601 4.70871 0 0 0
472 1 -1.2000 5.56446 29.50125 36.39600 0 0 0
473 1 -1.2000 23.20998 12.89695 7.96827 0 0 0
474 1 -1.2000 3.07330 8.03439 33.88924 0 0 0
475 1 -1.2000 29.90931 12.44747 20.65244 0 0 0
476 1 -1.2000 33.06933 5.00929 36.99569 0 0 0
477 1 -1.2000 12.30821 26.09781 11.58294 0 0 0
478 1 -1.2000 21.49214 30.95013 0.87147 0 0 0
479 1 -1.2000 10.88638 37.36701 9.35029 0 0 0
480 1 -1.2000 7.65115 37.41443 16.16887 0 0 0
481 1 -1.2000 1.27240 3.43845 0.75347 0 0 0
482 1 -1.2000 12.01319 33.38304 6.94449 0 0 0
483 1 -1.2000 6.05882 21.76328 27.28682 0 0 0
484 1 -1.2000 16.64723 33.67732 6.46934 0 0 0
485 1 -1.2000 16.27924 19.20352 11.17530 0 0 0
486 1 -1.2000 30.28478 18.22864 8.54996 0 0 0
487 1 -1.2000 34.05303 29.46330 11.15671 0 0 0
488 1 -1.2000 28.90955 9.96104 16.79578 0 0 0
489 1 -1.2000 12.53848 25.98270 20.07751 0 0 0
490 1 -1.2000 30.70983 22.00274 11.46537 0 0 0
491 1 -1.2000 4.79202 34.37281 20.34779 0 0 0
492 1 -1.2000 27.53496 0.17865 4.56124 0 0 0
493 1 -1.2000 26.69883 24.80555 2.67390 0 0 0
494 1 -1.2000 25.64578 26.15315 28.29431 0 0 0
495 1 -1.2000 7.18484 32.79987 9.72500 0 0 0
496 1 -1.2000 5.84687 20.42237 33.83828 0 0 0
497 1 -1.2000 20.24039 2.26812 12.49726 0 0 0
498 1 -1.2000 5.05141 7.22154 14.51805 0 0 0
499 1 -1.2000 26.07102 15.00737 15.78169 0 0 0
500 1 -1.2000 8.40800 0.46557 4.26212 0 0 0
501 1 -1.2000 21.37850 22.36951 28.32376 0 0 0
502 1 -1.2000 14.52358 7.64593 2.12808 0 0 0
503 1 -1.2000 29.30551 6.57727 24.24578 0 0 0
504 1 -1.2000 19.07565 25.58440 15.10070 0 0 0
505 1 -1.2000 11.07431 30.99793 20.18611 0 0 0
506 1 -1.2000 35.23235 24.22807 22.45840 0 0 0
507 1 -1.2000 4.42736 32.57343 1.70763 0 0 0
508 1 -1.2000 22.11667 12.80378 37.61928 0 0 0
509 1 -1.2000 12.61933 32.25476 0.87997 0 0 0
510 1 -1.2000 14.97482 7.18355 34.95494 0 0 0
511 1 -1.2000 5.65173 3.25221 15.18997 0 0 0
512 1 -1.2000 11.08264 20.22489 16.76889 0 0 0
513 1 -1.2000 0.38855 35.25341 0.36714 0 0 0
514 1 -1.2000 0.67683 19.06690 22.60931 0 0 0
515 1 -1.2000 25.49363 38.39405 9.02134 0 0 0
516 1 -1.2000 9.23508 1.87760 27.78027 0 0 0
517 1 -1.2000 13.63944 12.73785 13.94586 0 0 0
518 1 -1.2000 3.10723 38.35144 21.59236 0 0 0
519 1 -1.2000 15.32753 27.31577 21.34801 0 0 0
520 1 -1.2000 22.38864 19.83794 29.98248 0 0 0
521 1 -1.2000 24.58308 3.36237 34.15060 0 0 0
522 1 -1.2000 12.41158 11.21187 1.71467 0 0 0
523 1 -1.2000 37.18496 33.84673 1.53527 0 0 0
524 1 -1.2000 13.82117 8.11730 15.83930 0 0 0
525 1 -1.2000 17.33809 11.03488 31.23210 0 0 0
526 1 -1.2000 1.02171 0.37939 2.93996 0 0 0
527 1 -1.2000 28.29246 30.69791 7.89123 0 0 0
528 1 -1.2000 11.33499 33.39296 28.86855 0 0 0
529 1 -1.2000 27.94088 35.53884 10.19535 0 0 0
530 1 -1.2000 25.01112 31.66234 15.51928 0 0 0
531 1 -1.2000 30.27100 27.46588 25.50505 0 0 0
532 1 -1.2000 24.57226 32.33505 0.49218 0 0 0
533 1 -1.2000 5.03775 1.72532 16.91297 0 0 0
534 1 -1.2000 36.27991 37.16878 35.19530 0 0 0
535 1 -1.2000 36.46900 0.69397 10.57059 0 0 0
536 1 -1.2000 34.56204 13.20185 16.01490 0 0 0
537 1 -1.2000 32.62800 4.00915 32.76082 0 0 0
538 1 -1.2000 23.26682 10.00976 35.64119 0 0 0
539 1 -1.2000 13.88185 2.33114 0.06317 0 0 0
540 1 -1.2000 1.57846 11.20453 14.97963 0 0 0
541 1 -1.2000 14.04083 13.68631 2.18976 0 0 0
542 1 -1.2000 7.57054 26.64857 30.52942 0 0 0
543 1 -1.2000 5.27755 33.76925 18.98029 0 0 0
544 1 -1.2000 16.24069 17.19844 2.22261 0 0 0
545 1 -1.2000 3.49492 35.12433 33.10133 0 0 0
546 1 -1.2000 20.67494 9.33591 21.04658 0 0 0
547 1 -1.2000 3.04941 34.38476 9.27443 0 0 0
548 1 -1.2000 36.59400 35.81453 33.47751 0 0 0
549 1 -1.2000 21.78045 25.35650 11.26280 0 0 0
550 1 -1.2000 14.23013 30.85028 13.08161 0 0 0
551 1 -1.2000 0.94597 25.02918 4.07865 0 0 0
552 1 -1.2000 24.28384 37.91993 27.87596 0 0 0
553 1 -1.2000 9.36200 38.14904 26.23445 0 0 0
554 1 -1.2000 35.19762 33.96212 34.52545 0 0 0
555 1 -1.2000 9.75724 10.06277 38.32998 0 0 0
556 1 -1.2000 26.48450 7.77814 37.83404 0 0 0
557 1 -1.2000 37.37690 15.35665 15.74738 0 0 0
558 1 -1.2000 18.65903 5.02254 32.71605 0 0 0
559 1 -1.2000 1.27571 15.71002 2.57650 0 0 0
560 1 -1.2000 37.47025 7.32135 9.56862 0 0 0
561 1 -1.2000 27.17400 14.99803 35.49158 0 0 0
562 1 -1.2000 25.16189 23.23664 31.93813 0 0 0
563 1 -1.2000 36.42365 21.11882 17.18855 0 0 0
564 1 -1.2000 27.36076 18.49245 8.27698 0 0 0
565 1 -1.2000 33.70603 16.52329 10.38447 0 0 0
566 1 -1.2000 24.20945 28.11938 31.85231 0 0 0
567 1 -1.2000 17.45824 28.49359 22.30175 0 0 0
568 1 -1.2000 27.61073 22.08397 8.54303 0 0 0
569 1 -1.2000 3.27860 26.23703 33.42594 0 0 0
570 1 -1.2000 16.29549 2.03273 20.17445 0 0 0
571 1 -1.2000 4.48972 17.88074 14.24130 0 0 0
572 1 -1.2000 0.20509 9.62929 22.02550 0 0 0
573 1 -1.2000 8.16926 4.26539 24.96744 0 0 0
574 1 -1.2000 11.59028 19.22050 7.11668 0 0 0
575 1 -1.2000 8.95152 14.93168 5.50338 0 0 0
576 1 -1.2000 21.04486 36.34238 17.94540 0 0 0
577 1 -1.2000 37.53003 11.67052 21.92214 0 0 0
578 1 -1.2000 34.84125 0.05374 25.22089 0 0 0
579 1 -1.2000 14.60746 27.91127 7.92564 0 0 0
580 1 -1.2000 5.90763 0.30317 21.12341 0 0 0
581 1 -1.2000 7.07710 25.79371 9.34254 0 0 0
582 1 -1.2000 3.62857 32.97738 25.27128 0 0 0
583 1 -1.2000 28.64322 36.31153 12.19355 0 0 0
584 1 -1.2000 3.35926 14.39234 31.41526 0 0 0
585 1 -1.2000 24.25537 33.82546 26.00226 0 0 0
586 1 -1.2000 9.73072 1.61880 22.24568 0 0 0
587 1 -1.2000 4.03831 37.43099 19.50028 0 0 0
588 1 -1.2000 4.39477 28.41167 18.43058 0 0 0
589 1 -1.2000 29.58671 13.66668 13.13065 0 0 0
590 1 -1.2000 13.44642 36.29524 14.07424 0 0 0
591 1 -1.2000 34.56187 37.67882 6.80326 0 0 0
592 1 -1.2000 15.30568 22.09423 9.34314 0 0 0
593 1 -1.2000 0.53692 2.48346 8.94405 0 0 0
594 1 -1.2000 36.06047 12.01532 20.16610 0 0 0
595 1 -1.2000 29.10580 12.91188 16.23367 0 0 0
596 1 -1.2000 31.46283 13.74127 31.19822 0 0 0
597 1 -1.2000 1.88834 13.31810 12.56311 0 0 0
598 1 -1.2000 25.65987 21.03895 36.17166 0 0 0
599 1 -1.2000 5.94145 23.37593 12.16146 0 0 0
600 1 -1.2000 13.01877 30.48008 27.72349 0 0 0
601 1 -1.2000 28.84401 20.24036 26.81383 0 0 0
602 1 -1.2000 5.01885 25.72422 21.05966 0 0 0
603 1 -1.2000 13.50389 36.13749 21.21431 0 0 0
604 1 -1.2000 21.04860 35.97025 6.86193 0 0 0
605 1 -1.2000 24.45896 18.57959 11.10060 0 0 0
606 1 -1.2000 17.67393 32.20145 17.94971 0 0 0
607 1 -1.2000 2.03023 20.28708 35.01603 0 0 0
608 1 -1.2000 35.30240 38.01453 11.88437 0 0 0
609 1 -1.2000 9.78412 29.71938 35.02365 0 0 0
610 1 -1.2000 38.05174 20.21383 21.16631 0 0 0
611 1 -1.2000 37.54982 4.49107 3.24161 0 0 0
612 1 -1.2000 28.40857 5.53863 17.91420 0 0 0
613 1 -1.2000 10.80384 11.52770 7.23186 0 0 0
614 1 -1.2000 22.67043 1.17841 5.57652 0 0 0
615 1 -1.2000 13.53634 16.98603 17.60509 0 0 0
616 1 -1.2000 38.17466 8.48442 25.90018 0 0 0
617 1 -1.2000 21.29785 23.24927 15.43119 0 0 0
618 1 -1.2000 20.64474 15.28962 12.83036 0 0 0
619 1 -1.2000 22.76714 7.12742 35.33761 0 0 0
620 1 -1.2000 33.54717 24.97264 30.16142 0 0 0
621 1 -1.2000 5.05698 12.50450 29.29113 0 0 0
622 1 -1.2000 32.02494 32.36944 7.08560 0 0 0
623 1 -1.2000 18.39602 23.71743 17.03491 0 0 0
624 1 -1.2000 30.58298 4.38335 5.77916 0 0 0
625 1 -1.2000 33.74338 0.46138 10.80158 0 0 0
626 1 -1.2000 14.18031 27.90165 0.04108 0 0 0
627 1 -1.2000 8.05212 26.23366 23.05416 0 0 0
628 1 -1.2000 5.48915 16.67264 33.77041 0 0 0
629 1 -1.2000 33.85946 15.35744 14.49433 0 0 0
630 1 -1.2000 30.33423 30.89836 12.00384 0 0 0
631 1 -1.2000 21.35440 1.17004 9.96937 0 0 0
632 1 -1.2000 22.46421 35.44059 13.86250 0 0 0
633 1 -1.2000 14.13241 31.55665 21.58114 0 0 0
634 1 -1.2000 13.15767 6.76056 29.25639 0 0 0
635 1 -1.2000 19.77370 17.97568 16.94777 0 0 0
636 1 -1.2000 37.65751 22.14441 25.04372 0 0 0
637 1 -1.2000 15.82737 34.51645 17.17626 0 0 0
638 1 -1.2000 22.39640 0.56931 8.70145 0 0 0
639 1 -1.2000 32.33473 6.02408 20.20734 0 0 0
640 1 -1.2000 4.88588 20.05489 9.07016 0 0 0
641 1 -1.2000 30.50267 33.89881 27.66842 0 0 0
642 1 -1.2000 3.36314 5.46531 5.74955 0 0 0
643 1 -1.2000 31.19384 11.04709 31.71143 0 0 0
644 1 -1.2000 15.69446 18.10064 13.76841 0 0 0
645 1 -1.2000 24.33426 0.19437 13.74142 0 0 0
646 1 -1.2000 14.50256 7.46259 31.35028 0 0 0
647 1 -1.2000 21.68033 13.85814 12.18134 0 0 0