LAMMPS data file via write_data, version 2 Aug 2023, timestep = 1000708, units = metal

17268 atoms
5 atom types

-19.943203015591063 19.943203015591063 xlo xhi
-59.63574099876357 59.63574099876357 ylo yhi
-39.601836297024924 39.601836297024924 zlo zhi

Masses

1 32.065
2 28.085
3 6.941
4 1
5 1

Pair Coeffs # buck/coul/long

1 110000 0.284 1000
2 2.07988e+06 0.072 0
3 7.02015e+06 0.08 0
4 0 1 0
5 0 1 0

Atoms # charge

2 1 -1.2 -12.606471009762945 -55.91123422938255 -37.280649303395876 0 0 0
3 1 -1.2 -16.37526971382649 -54.76124955341805 -32.607947685765716 0 0 0
4 1 -1.2 -12.894468747726185 -56.05524551746468 -33.734408987506946 0 0 0
5 1 -1.2 -18.19804297529386 -54.13367582487883 -35.67750332790425 0 0 0
7 1 -1.2 -14.679679335057692 -53.6366408989782 -35.766356015261685 0 0 0
9 1 -1.2 -15.59765549964756 -56.834419593472006 -35.73764400223942 0 0 0
10 1 -1.2 -17.984347709193546 -57.89324551927866 -31.238793672451212 0 0 0
12 1 -1.2 -14.096991804916973 -56.81208239541414 -30.42482489826677 0 0 0
14 1 -1.2 -18.641584485184094 -56.682171902336755 -38.11947090073843 0 0 0
15 1 -1.2 -18.736520995436063 -57.92283844823088 -34.55443389712778 0 0 0
21 1 -1.2 -16.058898695568093 -54.603013807025555 -38.78311608121396 0 0 0
24 1 -1.2 -19.51242746637978 -53.745377101521875 -32.503116001553735 0 0 0
9783 2 2.4 -13.965337743052375 -55.49476574746421 -35.6413779364952 0 0 0
9784 2 2.4 -12.430662624647358 -56.35776311233082 -31.638986841766492 0 0 0
9785 2 2.4 -17.743560535182063 -53.45704731298877 -33.61537132077777 0 0 0
9787 2 2.4 -16.82354656535206 -58.579757662266545 -35.477612483613534 0 0 0
9788 2 2.4 -19.397523263849113 -54.973051861059076 -37.22298453697092 0 0 0
9790 2 2.4 -15.311161907072806 -52.89852064358619 -37.88165925146854 0 0 0
9792 2 2.4 -19.570667848896758 -58.11029517635801 -32.554896190150494 0 0 0
13809 3 0.6 -15.996905753963341 -57.137467047690876 -32.59619614109935 0 0 0
13813 3 0.6 -17.7318218525424 -55.547515637310774 -30.70983768487963 0 0 0
13816 3 0.6 -19.357643371850326 -52.87691170198565 -30.066818340048034 0 0 0
9791 2 2.4 -12.053279175911188 -56.68936996045238 -39.150007656490956 0 0 0
23 1 -1.2 -19.719028228572164 -53.35289598273941 -38.634360244587214 0 0 0
13817 3 0.6 -16.45064332792829 -57.03645691298939 -39.36335921232508 0 0 0
25 1 -1.2 -15.893088853186958 -59.58714311320179 -33.8680443074333 0 0 0
52 1 -1.2 -13.548570005340874 -52.35593344492537 -38.816588069473404 0 0 0
13851 3 0.6 -16.684645023291957 -59.09862828527505 -29.7322713208102 0 0 0
26 1 -1.2 -12.610363979347735 -59.542589238882826 -36.52233782920957 0 0 0
157 1 -1.2 -16.74850331895178 -59.611616279905654 -37.289784314534465 0 0 0
13814 3 0.6 -11.858994320389657 -58.353436892473724 -34.65723198819705 0 0 0
13812 3 0.6 -11.526491371421264 -52.9063389767028 -32.71902646542562 0 0 0
13 1 -1.2 -11.713904988330732 -54.47776640088681 -30.80145253043758 0 0 0
1 1 -1.2 -11.204630952164099 -52.92192786152183 -35.35030662158384 0 0 0
19 1 -1.2 -10.645421557169483 -57.42553109840703 -31.486113103146728 0 0 0
27 1 -1.2 -9.373881317138215 -58.2407914080278 -34.54503830496944 0 0 0
30 1 -1.2 -9.073769094257552 -54.199109482748476 -38.79476577438739 0 0 0
31 1 -1.2 -5.306675468331325 -58.3319182257034 -34.78272610929725 0 0 0
33 1 -1.2 -8.509372965639022 -55.10829588642013 -33.13172020101136 0 0 0
37 1 -1.2 -5.765211129252463 -53.892299306434786 -38.58070450412776 0 0 0
39 1 -1.2 -7.052378447658787 -57.68880805707542 -31.556645181738087 0 0 0
41 1 -1.2 -7.427231315577059 -56.739655112765625 -37.07233667150919 0 0 0
43 1 -1.2 -5.2154918799304335 -55.01918370596179 -35.18372867874216 0 0 0
184 1 -1.2 -10.336583125561868 -57.698370561368 -39.14530477336271 0 0 0
9795 2 2.4 -5.604411022987601 -56.844111581533866 -36.20203004457679 0 0 0
9798 2 2.4 -8.80444872093709 -57.24325112757313 -32.84770693356965 0 0 0
13815 3 0.6 -11.447287497461309 -53.49167551192875 -38.19748402314141 0 0 0
13818 3 0.6 -9.736797012330419 -57.150943759007276 -36.8025813332261 0 0 0
13820 3 0.6 -9.145942250898052 -53.917960861170265 -36.206995383305774 0 0 0
13821 3 0.6 -6.689839620136622 -54.29239597646489 -30.993427795235753 0 0 0
13822 3 0.6 -6.917888526497582 -53.56224934025983 -34.07742955814769 0 0 0
13825 3 0.6 -4.890966706994748 -57.069269539485894 -32.74788479226666 0 0 0
13827 3 0.6 -8.15272523245108 -58.67225380828786 -38.73956280677122 0 0 0
42 1 -1.2 -4.263688942609246 -55.42692208630897 -30.836269633896396 0 0 0
34 1 -1.2 -9.280463150039521 -52.33278175003474 -30.69661829952159 0 0 0
38 1 -1.2 -4.1219115278402505 -57.09076858855731 -37.81646147779462 0 0 0
13823 3 0.6 -8.676771898222453 -52.18942892396392 -33.41330106844513 0 0 0
13824 3 0.6 -3.9660725636079466 -54.4088281400648 -33.2235728207669 0 0 0
5320 1 -1.2 -1.3683662060919162 -58.13805047218543 -39.39478141415806 0 0 1
14112 3 0.6 2.3392033445322684 -58.72520107784046 -34.4969463325644 0 0 0
28 1 -1.2 -1.713958037202957 -59.248998057104735 -35.764409075670756 0 0 0
29 1 -1.2 -0.5270779829733462 -56.193543434183425 -36.69402442205492 0 0 0
32 1 -1.2 -0.885826739513782 -56.429600614478446 -30.460915891531975 0 0 0
35 1 -1.2 -2.0816161602018193 -53.253386350186275 -35.41242367989998 0 0 0
44 1 -1.2 -2.1939208675727766 -56.550265395093156 -33.72541743831995 0 0 0
45 1 -1.2 -1.8249582438196215 -53.34235888418777 -31.895333679188205 0 0 0
49 1 -1.2 -1.8980820168571775 -53.55576163542265 -39.11791012730553 0 0 0
847 1 -1.2 2.0673702328153722 -53.44191504259771 -36.75787497301711 0 0 0
851 1 -1.2 3.4636237587345025 -52.81547071423299 -33.116855828822736 0 0 0
853 1 -1.2 2.930981880808861 -56.74139172474287 -35.62461862767346 0 0 0
858 1 -1.2 0.6616256541465128 -54.72381070948711 -33.70245110628313 0 0 0
860 1 -1.2 0.4641906056202284 -58.43072011775615 -32.9009170424044 0 0 0
862 1 -1.2 2.5309861202459096 -55.841483654611146 -31.027576684910866 0 0 0
864 1 -1.2 2.230942749333281 -56.13353467429898 -39.022049616878405 0 0 0
869 1 -1.2 1.861833958256707 -58.96793833464998 -29.85278846047312 0 0 0
870 1 -1.2 1.2707865998886128 -59.327262041664206 -37.23203052728004 0 0 0
9793 2 2.4 -2.2634502139652644 -54.83689362038429 -30.514721877433377 0 0 0
9797 2 2.4 -1.115876163246167 -55.030627761686745 -34.83678857861078 0 0 0
9800 2 2.4 -0.4970759652232355 -58.212891909073065 -37.405625625979276 0 0 0
9801 2 2.4 -1.6121366815154985 -58.62562887586411 -33.710086403198716 0 0 0
10135 2 2.4 3.018373287590824 -55.297762007070325 -37.107056063089495 0 0 0
10140 2 2.4 1.0783005364940013 -57.23715352900453 -31.00217999321739 0 0 0
10142 2 2.4 1.403425612121798 -52.796730964036215 -32.57486894872333 0 0 0
13826 3 0.6 -3.5624737415696033 -54.42492755939317 -37.3906820015814 0 0 0
14106 3 0.6 3.4238499052315503 -56.35117058585679 -33.24376724172158 0 0 0
14114 3 0.6 0.46937934877114035 -54.01827344603811 -38.869049003665005 0 0 0
846 1 -1.2 4.4857571827067115 -58.61614827321112 -32.711445581610796 0 0 0
848 1 -1.2 9.205188341852573 -54.31798895758672 -34.39572863380529 0 0 0
849 1 -1.2 5.653164686287182 -55.35035099292536 -33.90900033459737 0 0 0
852 1 -1.2 7.818228752022042 -56.939956606278045 -36.25709925313395 0 0 0
854 1 -1.2 6.701079880857011 -52.48041535677093 -32.018165406147844 0 0 0
855 1 -1.2 5.0051227033736225 -54.81273343604044 -37.6125793521577 0 0 0
856 1 -1.2 8.209551134033468 -53.555753016698056 -37.85732608452657 0 0 0
863 1 -1.2 7.889470349354476 -57.41138597641232 -32.826366924306846 0 0 0
866 1 -1.2 4.673443460602105 -58.99977560252502 -37.9116591622547 0 0 0
867 1 -1.2 6.048655616833337 -56.81293331115635 -30.127094313290794 0 0 0
872 1 -1.2 10.926886876875315 -55.81700766922876 -31.70137986384097 0 0 0
877 1 -1.2 11.554520508019419 -56.57292343935679 -35.18782386333682 0 0 0
889 1 -1.2 10.546330418237602 -57.149906622698865 -38.28639141488207 0 0 0
10134 2 2.4 7.652153143408226 -55.76636696747536 -34.39186910031228 0 0 0
10138 2 2.4 8.486486522544876 -57.72686448194245 -38.057106376201574 0 0 0
10139 2 2.4 6.195800464772959 -53.08364031457397 -37.30928688831552 0 0 0
10141 2 2.4 6.291513663945116 -58.30248876754899 -31.61407666448545 0 0 0
10145 2 2.4 10.866230724717894 -57.70432286349764 -30.870578270878045 0 0 0
10146 2 2.4 11.26402291506751 -54.463819863681806 -35.06224653747357 0 0 0
14105 3 0.6 4.840044567615367 -54.73730658122333 -31.274522944354644 0 0 0
14108 3 0.6 8.912422380292647 -53.34822370009334 -31.695281110918256 0 0 0
14109 3 0.6 5.104875180344674 -58.21735584666375 -35.13128849927944 0 0 0
14111 3 0.6 5.371857465680678 -56.87717954271479 -38.95299554558469 0 0 0
14119 3 0.6 11.613870362695259 -53.87761502862765 -30.528142356938776 0 0 0
880 1 -1.2 11.730425898233927 -53.83461669148446 -37.09660715233344 0 0 0
850 1 -1.2 6.029854394647584 -52.377946175456024 -35.39947347254865 0 0 0
984 1 -1.2 10.305347377655437 -59.562279438985705 -31.90522720829119 0 0 0
12265 2 2.4 9.314247905687655 -52.981786054147534 -39.59476205872058 0 0 1
899 1 -1.2 13.654970719938676 -55.73494539051886 -39.24913229058795 0 0 0
876 1 -1.2 12.830893977483457 -53.73258638817579 -33.926129322846165 0 0 0
878 1 -1.2 14.805905486628058 -56.02880458093241 -31.877877864214216 0 0 0
881 1 -1.2 16.37574369404606 -53.463242903705364 -33.45951972740945 0 0 0
882 1 -1.2 18.51430020896695 -55.5353985314831 -36.40736415011964 0 0 0
883 1 -1.2 18.732090086003534 -56.71086932397052 -32.034076101782894 0 0 0
884 1 -1.2 14.12940268373307 -52.60569215888526 -31.078741971802106 0 0 0
885 1 -1.2 16.780187200690897 -57.83888467522978 -38.29461583834215 0 0 0
886 1 -1.2 15.146992767101354 -55.89010578995771 -35.978151602819324 0 0 0
887 1 -1.2 17.29931029697463 -58.591021137750424 -35.046867188193076 0 0 0
890 1 -1.2 12.82186229212442 -58.19226985453533 -30.244698245075877 0 0 0
891 1 -1.2 13.49259047278049 -59.072652779453975 -37.06246737666599 0 0 0
893 1 -1.2 17.39953452288127 -53.69604646937524 -30.080388863512166 0 0 0
894 1 -1.2 13.527907952061005 -58.80269257619012 -33.625488494951526 0 0 0
10144 2 2.4 13.870805412052585 -53.785276027993056 -38.047813601023215 0 0 0
10147 2 2.4 14.555640940516271 -54.10170285627585 -32.70344995607504 0 0 0
10148 2 2.4 16.72220575032849 -57.06168018819757 -36.38019064063788 0 0 0
10149 2 2.4 18.22991789100497 -55.5836818051282 -30.239101814434065 0 0 0
10150 2 2.4 14.43728319195887 -58.08217733474779 -31.847417435590998 0 0 0
10151 2 2.4 12.375116318125896 -58.4708059096337 -35.44809376589835 0 0 0
14116 3 0.6 16.849638915866905 -53.59501772376479 -35.87382285300408 0 0 0
14118 3 0.6 18.42124111550399 -54.670025030840065 -34.04338187068882 0 0 0
879 1 -1.2 14.943184371313924 -52.49189332662343 -36.80081810613171 0 0 0
897 1 -1.2 16.093222882287055 -59.35016821182774 -31.409041049963662 0 0 0
6005 1 -1.2 17.00165669893793 -54.2418988696685 -39.417368549406824 0 0 1
14120 3 0.6 19.46310223059909 -59.26213664698353 -36.14140812439456 0 0 0
11702 2 2.4 16.445621182095 -59.55224403292465 -39.40522530799532 0 1 0
12287 2 2.4 18.383168489285822 -52.55739102240975 -39.598473677994086 0 0 1
13810 3 0.6 -14.926958268280492 -51.75386931532008 -34.37750405630947 0 0 0
11 1 -1.2 -13.74862695995754 -51.731867078175064 -32.35443663795307 0 0 0
6 1 -1.2 -17.172346843436447 -51.46966889926359 -33.693967119477 0 0 0
8 1 -1.2 -16.39825139640916 -51.06184157368223 -37.52176330234505 0 0 0
17 1 -1.2 -15.990703619560477 -50.39762486997319 -30.120059448257773 0 0 0
18 1 -1.2 -13.556407664652605 -50.300396412656276 -35.78870609771308 0 0 0
20 1 -1.2 -19.394086231991697 -50.528864936626974 -30.725725364844134 0 0 0
58 1 -1.2 -14.374290672386975 -48.29328031010002 -38.45207254365741 0 0 0
62 1 -1.2 -17.94070556651873 -47.10072140113312 -38.745658082013286 0 0 0
64 1 -1.2 -17.295315145464173 -47.72979689214606 -31.73246682179408 0 0 0
65 1 -1.2 -16.273715121498398 -48.23816770647257 -35.50316173441085 0 0 0
69 1 -1.2 -13.17870554183003 -47.83250369484346 -32.61101123014294 0 0 0
75 1 -1.2 -19.518455663140525 -46.44429512046728 -33.935517544262396 0 0 0
9786 2 2.4 -14.415845259918521 -51.820841399089396 -30.462373166647875 0 0 0
9804 2 2.4 -19.7181974094413 -48.40782496808203 -38.987007037802535 0 0 0
9805 2 2.4 -17.826009559125723 -49.26285406740802 -30.153780102402163 0 0 0
9806 2 2.4 -15.220031572758604 -49.311804107812286 -36.863126940637684 0 0 0
9810 2 2.4 -17.852632050520366 -45.946400034441325 -32.81199437690775 0 0 0
13811 3 0.6 -18.72656272443856 -51.57746551190509 -36.7241457545313 0 0 0
13830 3 0.6 -15.421681201828596 -49.3946118041556 -33.2647070116629 0 0 0
13831 3 0.6 -18.399923470576823 -49.01720093212411 -34.043739382118204 0 0 0
13832 3 0.6 -14.184129546328338 -46.77293747632948 -34.720718908531936 0 0 0
13833 3 0.6 -14.858166014971841 -47.98137449199891 -30.72802701742174 0 0 0
61 1 -1.2 -16.443368049973856 -44.899916463456606 -34.119836690001556 0 0 0
9807 2 2.4 -17.83713491693244 -45.0594687652564 -38.31181997473195 0 0 0
71 1 -1.2 -14.371933075059832 -44.81819663864072 -30.49374226906921 0 0 0
53 1 -1.2 -19.852857232876048 -49.20199491688756 -36.877001474443524 0 0 0
57 1 -1.2 -19.403348781086322 -44.79133738265645 -36.90603568543766 0 0 0
13829 3 0.6 -11.83108976553782 -47.77987269104985 -38.355032591842544 0 0 0
60 1 -1.2 -11.959021846844808 -46.906338765224625 -35.99043385796499 0 0 0
47 1 -1.2 -5.523150072014481 -52.064145569982344 -30.34190936365863 0 0 0
40 1 -1.2 -7.539085451547456 -51.97720418535418 -35.85087468790296 0 0 0
9796 2 2.4 -6.226389587238762 -52.04780800266136 -37.59059988162243 0 0 0
9803 2 2.4 -9.367672919469957 -50.342766194887716 -39.4452844425062 0 0 0
16 1 -1.2 -10.632150494032201 -50.439691257256094 -37.58056481849364 0 0 0
22 1 -1.2 -10.766738578737202 -49.74132399943521 -34.037963483708566 0 0 0
36 1 -1.2 -4.624539866378098 -51.898055538760886 -33.61280232857993 0 0 0
46 1 -1.2 -4.368381248027438 -51.24298670571437 -37.01784508322792 0 0 0
48 1 -1.2 -7.315216033615303 -50.91485754340448 -39.019150198944416 0 0 0
50 1 -1.2 -7.284875204698104 -50.049344784200194 -32.628275074679394 0 0 0
73 1 -1.2 -10.58993059479404 -48.767630730757816 -30.66906137684458 0 0 0
79 1 -1.2 -9.83873548168876 -46.4799742166065 -33.39748722136227 0 0 0
85 1 -1.2 -8.664354093038382 -47.59698043910161 -36.60700351993997 0 0 0
87 1 -1.2 -4.843886239412518 -46.1084492666582 -38.002520055759 0 0 0
88 1 -1.2 -5.607328705263257 -46.13069195040587 -32.063486280699415 0 0 0
97 1 -1.2 -5.538304796239425 -48.27558870678924 -35.037315192902874 0 0 0
9789 2 2.4 -11.54868119289673 -50.892906402081316 -35.6299528692507 0 0 0
9799 2 2.4 -5.400286504965711 -50.68904766586276 -32.044479099675506 0 0 0
9811 2 2.4 -11.143340134119901 -48.15430564408924 -32.643429743973066 0 0 0
9816 2 2.4 -9.969414105284248 -46.35221191143696 -35.546247814232956 0 0 0
9819 2 2.4 -5.016926515067465 -46.437337093143235 -34.32288720903557 0 0 0
13828 3 0.6 -8.700196217651206 -50.13026443918932 -30.861479496229403 0 0 0
13841 3 0.6 -7.711428301452139 -49.54309183771211 -34.97851547152625 0 0 0
13844 3 0.6 -6.257345363194244 -48.13830823295064 -37.526202315390414 0 0 0
13847 3 0.6 -7.411034613720679 -45.36255279730872 -37.73182288905654 0 0 0
13848 3 0.6 -7.456525274648587 -47.70512278474784 -31.176916091813315 0 0 0
76 1 -1.2 -10.336716558710577 -45.12384605005055 -29.979476585413913 0 0 0
89 1 -1.2 -6.16171591018028 -44.84931575798258 -35.14561463252627 0 0 0
857 1 -1.2 1.1947262657917206 -52.00444004968749 -30.650570365482988 0 0 0
81 1 -1.2 -3.924160194070263 -49.31185226815132 -31.516246752128982 0 0 0
13840 3 0.6 -2.818353111736105 -49.773430245610605 -39.208184505398314 0 0 0
51 1 -1.2 -2.317081709921003 -49.665262928372805 -34.71767259388543 0 0 0
93 1 -1.2 -2.896409447584495 -46.30227101719684 -34.73624272113523 0 0 0
94 1 -1.2 -2.209515312846462 -46.327341099291374 -31.30812235695547 0 0 0
96 1 -1.2 -1.8909209678447958 -47.97868863763537 -37.623572602583195 0 0 0
861 1 -1.2 0.6475762143226482 -51.52083777406865 -34.1197164140447 0 0 0
868 1 -1.2 3.1285882842888717 -50.216188591354815 -36.02179392109266 0 0 0
898 1 -1.2 0.036067128176752006 -50.8306870199947 -37.60100370538138 0 0 0
904 1 -1.2 0.7564246313896197 -45.21224822075582 -32.86255376712229 0 0 0
907 1 -1.2 1.809282288467707 -48.38766437613995 -32.31477673473256 0 0 0
915 1 -1.2 2.292050100243226 -45.87823814634387 -38.06881388045743 0 0 0
923 1 -1.2 0.3597086280118429 -47.50396767177004 -35.24129629559636 0 0 0
924 1 -1.2 2.2322087240771125 -48.99823165142025 -39.36392266787818 0 0 0
9794 2 2.4 -3.283661774658034 -51.42123435287252 -35.208703814907594 0 0 0
9821 2 2.4 -1.7255262050416171 -47.806017055699925 -35.57330494826153 0 0 0
9824 2 2.4 -2.976913576105456 -47.9700037113261 -30.207091269385188 0 0 0
10137 2 2.4 1.4403167541511976 -51.38213482061144 -36.0227344724459 0 0 0
10158 2 2.4 1.8679639457465367 -47.06057578783324 -33.83575321306804 0 0 0
10164 2 2.4 3.5907036572357347 -47.4369617011005 -39.07304690077189 0 0 0
13819 3 0.6 -0.8655336434826739 -50.42555701493173 -32.270387600084426 0 0 0
13842 3 0.6 -0.3456375976789985 -46.32103578441066 -38.62851881975566 0 0 0
14131 3 0.6 0.23738971058860397 -47.0192182647874 -31.02374827246949 0 0 0
918 1 -1.2 3.7274939080796465 -46.63702925970263 -34.66105509270653 0 0 0
14157 3 0.6 1.3205455796904852 -49.11794570988145 -29.715902665454042 0 0 0
14110 3 0.6 3.4711944118060183 -51.14548204751092 -30.05263555786612 0 0 0
911 1 -1.2 3.8615974865831575 -45.52644375984029 -31.025608308534068 0 0 0
14123 3 0.6 4.423330679070679 -48.28412974950489 -31.57856363981074 0 0 0
10136 2 2.4 5.311934607358634 -51.94279604743687 -33.50755706254414 0 0 0
859 1 -1.2 5.401865970020665 -51.601295254610875 -38.66065862963972 0 0 0
865 1 -1.2 7.885468290418938 -49.96001514590232 -36.89475689437349 0 0 0
871 1 -1.2 5.22741976841266 -49.79453058406514 -33.15296220909084 0 0 0
873 1 -1.2 10.643582928338457 -51.740470419883515 -30.864662042968227 0 0 0
874 1 -1.2 10.94416689865423 -50.73672446298095 -35.543189376363216 0 0 0
895 1 -1.2 10.218210255822475 -51.144120618618054 -38.949943136902824 0 0 0
900 1 -1.2 8.780395623298556 -49.53995891942986 -33.09197993178295 0 0 0
902 1 -1.2 8.117451841969231 -45.90508146552636 -38.822835857667876 0 0 0
906 1 -1.2 5.051079385718082 -47.73079898531043 -37.58236182037888 0 0 0
909 1 -1.2 7.120379982146571 -47.024859672546484 -35.07940318030672 0 0 0
917 1 -1.2 6.964265941124625 -46.630240872476875 -31.84893803047025 0 0 0
929 1 -1.2 10.226431880325107 -48.30449317607935 -30.169891949191527 0 0 0
931 1 -1.2 10.00881104532061 -46.26642802001276 -33.37411655283167 0 0 0
935 1 -1.2 10.331664607078089 -47.70615067976828 -36.93352244601521 0 0 0
10155 2 2.4 9.95604037996053 -49.92489598482658 -37.118947270123975 0 0 0
10159 2 2.4 8.285405546778708 -47.506778376532196 -33.34091412145501 0 0 0
10161 2 2.4 5.368496833866562 -46.402472634584704 -35.966005938283125 0 0 0
10166 2 2.4 9.773320766388382 -45.762987235661775 -37.63543947229244 0 0 0
14107 3 0.6 8.277064754157244 -51.427416940081024 -34.51183565812148 0 0 0
14113 3 0.6 5.520806970349159 -49.85838760608404 -36.16673547509696 0 0 0
14122 3 0.6 6.8263136691224435 -49.979961533977544 -31.166753049114615 0 0 0
14128 3 0.6 7.274863161509342 -48.06603642107067 -38.398620378432085 0 0 0
14130 3 0.6 8.825396090157856 -46.3592713248141 -30.221872859097775 0 0 0
949 1 -1.2 11.51151099933413 -44.84337024290423 -38.60882449742751 0 0 0
14115 3 0.6 10.9262717161799 -51.017809576569086 -33.135055570138356 0 0 0
10160 2 2.4 5.767501079163945 -44.77860685794887 -31.58214071558592 0 0 0
14134 3 0.6 11.733096776132212 -48.20343241095052 -35.02048460980609 0 0 0
14117 3 0.6 18.7523077402316 -51.981380919925385 -32.88482921349294 0 0 0
875 1 -1.2 18.603774760524907 -52.019413813196415 -35.83767541825215 0 0 0
888 1 -1.2 16.557904365132213 -50.251178765588065 -31.130192768315307 0 0 0
892 1 -1.2 14.47333306146517 -50.447501118643885 -33.91136554626573 0 0 0
896 1 -1.2 17.398028448725682 -50.833751921099235 -39.16995938332707 0 0 0
928 1 -1.2 18.593333392864274 -49.48719881586429 -33.66455759022939 0 0 0
930 1 -1.2 18.43500097208758 -47.28236620259448 -39.17932169982128 0 0 0
932 1 -1.2 13.297102086191293 -49.154912131122764 -30.949168644622034 0 0 0
933 1 -1.2 16.54535164756639 -49.27419592418414 -36.219054812464414 0 0 0
936 1 -1.2 18.814072481247308 -47.375682797956905 -30.868013244084143 0 0 0
937 1 -1.2 13.669073792597173 -49.45958182337726 -37.59316013908632 0 0 0
941 1 -1.2 17.30740396314688 -45.69420456434321 -35.95147260324387 0 0 0
944 1 -1.2 15.092220519804197 -45.828065207117994 -38.83628367500855 0 0 0
945 1 -1.2 16.18190078276413 -47.2031156687743 -32.83790759766839 0 0 0
946 1 -1.2 13.615096946187887 -46.60904963268526 -34.956830309011266 0 0 0
948 1 -1.2 13.105065446950574 -45.98017153216084 -31.561473744111957 0 0 0
10152 2 2.4 14.576582066711909 -50.58981735260023 -31.7280077684561 0 0 0
10153 2 2.4 14.740155776388134 -50.44515923564638 -36.08794677620782 0 0 0
10154 2 2.4 18.45562624784952 -49.99390287494609 -35.74174729547813 0 0 0
10168 2 2.4 17.738629088779803 -48.57276496843196 -32.02489854425555 0 0 0
10172 2 2.4 14.5532808604668 -45.985103776793984 -33.20526041821171 0 0 0
10174 2 2.4 12.33283796550128 -47.413732630814955 -30.210886322299096 0 0 0
14139 3 0.6 13.15049344460036 -46.81977123988085 -37.360879496112624 0 0 0
10170 2 2.4 19.16605654169157 -45.15793248398433 -35.26335107260511 0 0 0
15978 3 0.6 16.28002124379744 -48.42085355841203 -38.59516337083282 0 0 1
14136 3 0.6 18.37024298429471 -45.03179230262377 -30.499160868260507 0 0 0
14121 3 0.6 18.238558541522764 -51.34365737339792 -29.826398471777477 0 0 0
10171 2 2.4 15.957363793989325 -44.7639558729214 -37.31942182184765 0 0 0
56 1 -1.2 -18.2181752786383 -44.4490667346679 -31.404795273514704 0 0 0
54 1 -1.2 -15.563274459695931 -40.19671541557007 -38.45120589765674 0 0 0
55 1 -1.2 -18.3937646969357 -40.67085023300387 -33.43096938880383 0 0 0
59 1 -1.2 -15.961729174653355 -44.36951218471188 -37.7287790304128 0 0 0
63 1 -1.2 -12.698469487579244 -43.06293023477509 -37.02737880642767 0 0 0
66 1 -1.2 -15.399037927493202 -41.6562927111338 -35.52346002580235 0 0 0
67 1 -1.2 -15.61598474584379 -41.83243124661884 -31.88816118658581 0 0 0
68 1 -1.2 -18.4251916651599 -41.397497818916506 -36.97922428281701 0 0 0
70 1 -1.2 -13.264785600797524 -43.78911080697227 -33.74601434639818 0 0 0
72 1 -1.2 -12.525519840241488 -42.121568605062016 -30.53403554751617 0 0 0
438 1 -1.2 -17.237548863754693 -38.441188654269816 -35.916166247540836 0 0 0
439 1 -1.2 -18.64810934830445 -38.45755712251029 -39.096761773281735 0 0 0
440 1 -1.2 -13.752614298753423 -38.255916098158465 -35.937670238445456 0 0 0
441 1 -1.2 -15.300804353786926 -38.65761840398177 -32.926766576646465 0 0 0
446 1 -1.2 -17.61833871979957 -39.19286787494402 -30.45261625900618 0 0 0
9808 2 2.4 -14.021007069856118 -43.156283803172535 -31.714213361069376 0 0 0
9809 2 2.4 -14.271811970966578 -43.425328399711034 -35.618989498216024 0 0 0
9812 2 2.4 -16.674708091526647 -40.22772948322594 -36.76601670326105 0 0 0
9814 2 2.4 -16.801550139264915 -40.15445565302225 -32.23232449883669 0 0 0
9958 2 2.4 -13.391801943626954 -38.55387586193074 -33.84361769501237 0 0 0
9964 2 2.4 -19.448895387624297 -38.11979585040653 -30.096991135110557 0 0 0
13835 3 0.6 -13.230412936749799 -40.32493323843965 -37.35270566684087 0 0 0
13836 3 0.6 -17.724875689603028 -42.76851166022974 -34.80595131076756 0 0 0
74 1 -1.2 -12.383234379191963 -40.290294735473736 -33.538120994752525 0 0 0
13838 3 0.6 -16.556616453127504 -42.313449060447304 -39.17560130908311 0 0 0
14330 3 0.6 -19.9279020360347 -39.416647796753765 -37.15659953521286 1 0 0
13837 3 0.6 -13.851117445536937 -44.71078649285317 -39.3431733892441 0 0 0
13834 3 0.6 -11.0001344768113 -44.58109059795317 -32.30805400019785 0 0 0
13846 3 0.6 -8.12165783380866 -44.418200183954994 -32.467527403802364 0 0 0
84 1 -1.2 -9.722585371351917 -44.4334244271121 -36.32794668081687 0 0 0
78 1 -1.2 -10.132100011057828 -41.0682107594827 -35.87866038877476 0 0 0
80 1 -1.2 -9.816823379942939 -42.72953517708891 -32.91439598757627 0 0 0
86 1 -1.2 -5.805841119317834 -40.13223782282235 -31.3105376648986 0 0 0
92 1 -1.2 -6.467727782814805 -41.362420516160704 -34.58500822760847 0 0 0
99 1 -1.2 -7.0040067970755056 -42.813519599147256 -37.69893514239629 0 0 0
100 1 -1.2 -7.105453056977644 -43.282755743321275 -30.767743435809493 0 0 0
443 1 -1.2 -11.356337556778856 -39.008739541342045 -38.59195032138689 0 0 0
444 1 -1.2 -11.762645167210593 -38.74064013488201 -30.282471907135278 0 0 0
454 1 -1.2 -9.197834193833364 -39.34810898181184 -33.0284924766228 0 0 0
462 1 -1.2 -5.9667227373467355 -37.9725464680897 -34.10091497320517 0 0 0
472 1 -1.2 -7.9323680115721 -39.13781212358721 -37.83796126591322 0 0 0
9813 2 2.4 -10.463261523659794 -42.71538318146522 -37.27624811678466 0 0 0
9815 2 2.4 -10.317718434125672 -40.88026062518871 -33.63484016544994 0 0 0
9818 2 2.4 -5.428026738510703 -39.94882525722276 -33.3751251395097 0 0 0
9820 2 2.4 -5.91112908472697 -42.96098614788889 -35.98941888494808 0 0 0
9823 2 2.4 -5.171474410532232 -44.23413482077701 -31.05298929688719 0 0 0
9968 2 2.4 -9.705066683513667 -37.944821767069286 -37.689574151661446 0 0 0
13843 3 0.6 -10.182029096085964 -42.6614889688737 -30.320125779493257 0 0 0
13849 3 0.6 -6.0350997435461124 -40.554403941887095 -38.2513339737427 0 0 0
13981 3 0.6 -8.096890587194878 -39.571104180519384 -35.53787914168536 0 0 0
474 1 -1.2 -4.334220278141219 -38.666861032916096 -37.80317463669324 0 0 0
77 1 -1.2 -10.22258313625619 -42.07346645022092 -39.23272982643706 0 0 0
9976 2 2.4 -9.621954451148278 -38.23531840406162 -29.822723302960842 0 0 0
9861 2 2.4 -6.936826326901416 -41.271124300007 -29.820898557071256 0 0 0
456 1 -1.2 -9.908910356104297 -37.289781993296614 -35.76862946545184 0 0 0
95 1 -1.2 -4.258106092654712 -43.221869301579204 -32.60579350586669 0 0 0
13845 3 0.6 -2.624230224866823 -44.63237087101746 -37.087091025613226 0 0 0
91 1 -1.2 -3.8259377684306664 -42.62325323384598 -36.45765563530338 0 0 0
82 1 -1.2 -0.388830025458285 -43.86633563363862 -38.0007827060225 0 0 0
83 1 -1.2 -3.2437243158567126 -40.10335439749684 -34.150908838893585 0 0 0
90 1 -1.2 -1.2026756576233453 -42.890951600562424 -30.847867738647672 0 0 0
98 1 -1.2 -1.2133022429806928 -42.93707271426689 -34.27978418831964 0 0 0
101 1 -1.2 -1.3371272747211276 -40.37188655433635 -37.06475646335067 0 0 0
483 1 -1.2 -0.21314082209822946 -39.666141511526305 -30.684622294247248 0 0 0
912 1 -1.2 2.442897266200377 -41.890300819060236 -31.48873112298314 0 0 0
914 1 -1.2 2.189722596982424 -43.39645742066798 -35.51748139709102 0 0 0
920 1 -1.2 2.9436826476075075 -42.62985669160719 -38.74319798663946 0 0 0
922 1 -1.2 0.8030967409860482 -39.96763077685207 -34.199620749664554 0 0 0
1267 1 -1.2 2.576541262722145 -38.166955782503656 -31.871505831323407 0 0 0
1289 1 -1.2 3.0436229148199585 -39.3722990947622 -37.35065797201091 0 0 0
9822 2 2.4 -2.1416133819209944 -41.530026100953506 -35.41205089115437 0 0 0
9825 2 2.4 -0.8334879180332059 -43.984758503731435 -32.616298190642965 0 0 0
9826 2 2.4 -1.5831533617890152 -40.09227940455301 -39.16623431270219 0 0 0
10163 2 2.4 1.6524694433876175 -43.899707135712724 -37.47806098707277 0 0 0
10311 2 2.4 0.6239089716445837 -38.84629465834336 -32.40029662143175 0 0 0
14124 3 0.6 2.8600696785883843 -43.995602195191644 -32.96719773822226 0 0 0
14127 3 0.6 2.479659122271492 -41.56514587480746 -33.96346086340206 0 0 0
14259 3 0.6 0.6274297179559621 -38.76934197941923 -36.30920893949571 0 0 0
13978 3 0.6 -2.829694798396722 -37.47121223683138 -33.31097167821407 0 0 0
13973 3 0.6 -2.49314789128305 -37.770889965998144 -36.47141381809344 0 0 0
469 1 -1.2 -3.4832715491048587 -37.418764806992904 -30.983103429468184 0 0 0
10165 2 2.4 3.5105082559325336 -41.14534348716191 -29.815730347228868 0 0 0
10314 2 2.4 3.931706278748355 -38.50723417940381 -35.62324371618844 0 0 0
12320 2 2.4 3.976656230785387 -40.811373929995604 -38.77015206373131 0 0 1
14132 3 0.6 6.929417442201508 -43.73546267824816 -38.479724465121876 0 0 0
901 1 -1.2 4.485396263174788 -40.1004507892686 -34.383739547834686 0 0 0
903 1 -1.2 5.379282692644659 -40.50709552704423 -30.510814260190415 0 0 0
905 1 -1.2 8.28230792128089 -40.71524265033453 -35.516691358226225 0 0 0
908 1 -1.2 5.968462634250892 -40.886294477842625 -38.0327075171773 0 0 0
910 1 -1.2 5.593244619404395 -43.54327781535924 -33.20758905501195 0 0 0
913 1 -1.2 8.961876987730113 -43.09200050409612 -32.68423693816678 0 0 0
916 1 -1.2 5.585862317840917 -44.38813574414144 -36.57798099419895 0 0 0
919 1 -1.2 9.00759186878938 -42.131328158390986 -38.78705371028031 0 0 0
921 1 -1.2 9.300287784714948 -44.28267859865672 -35.94439292527039 0 0 0
955 1 -1.2 11.061071457043061 -39.99856374838648 -33.2725784273107 0 0 0
1272 1 -1.2 8.604641229517387 -38.69416119993318 -38.170117329715126 0 0 0
1276 1 -1.2 5.895770430430478 -37.819426599282444 -36.3052688013663 0 0 0
1285 1 -1.2 8.011233134227849 -39.57326467039928 -32.25237321849573 0 0 0
10162 2 2.4 8.048626545593498 -40.73457311155441 -37.60368005420924 0 0 0
10167 2 2.4 10.151100499061677 -44.11613537857517 -33.893034495637885 0 0 0
10222 2 2.4 7.341616305481045 -39.88850824199413 -30.29308930030355 0 0 0
10316 2 2.4 9.208954788219353 -39.48626731869608 -34.06314902805141 0 0 0
14125 3 0.6 4.437119763857488 -42.50173145169447 -35.302655460660844 0 0 0
14126 3 0.6 7.2063231642882535 -42.978021939309954 -35.04940161209044 0 0 0
14129 3 0.6 6.213807293912395 -41.140500575158875 -33.127383749929336 0 0 0
14133 3 0.6 11.256307111888182 -40.27825142994305 -39.00147911213698 0 0 0
14137 3 0.6 11.167531301142466 -42.09611542147156 -32.0156558059309 0 0 0
14267 3 0.6 11.369124634051616 -37.81350498558475 -32.06905493172117 0 0 0
925 1 -1.2 6.6275971807818825 -43.85614713250545 -29.855749940596855 0 0 0
1282 1 -1.2 9.195026845173082 -37.447732184350976 -34.71519005189685 0 0 0
951 1 -1.2 11.734710594255693 -41.06000291060697 -36.69596817576716 0 0 0